40
Lattice="6.856 0.0 0.0 0.0 6.628 0.0 0.0 0.0 9.147" Properties=species:S:1:pos:R:3:momenta:R:3:forces:R:3 energy=-32419.77599983194 free_energy=-32419.77599983194 stress="0.0031097748167544406 8.070948687081059e-06 -1.0624946022922656e-06 8.070948687081059e-06 0.008565809181523177 -2.201027835298796e-05 -1.0624946022922656e-06 -2.201027835298796e-05 0.037045362114962295" pbc="T T T"
N        0.98678911       1.10121243       0.99077714      -0.49341500       0.77649914       0.03041410      -0.27406313       0.12344020      -0.10776701
N        5.86921305       5.52682299       8.15622040      -0.46922538       1.39752149       0.55169995       0.27406886      -0.12346102       0.10782000
N        2.44123171       5.52683243       5.56427784      -0.21619424      -1.19714062       0.11536210       0.27349689      -0.12264842      -0.10569539
N        4.41477435       1.10120445       3.58272460      -0.77409889      -0.19747372       0.52082749      -0.27351255       0.12263656       0.10571263
N        5.86923013       4.41522049       3.58273232       0.23090034      -0.50335788      -1.41311037       0.27376246       0.12216491       0.10470876
N        0.98677058       2.21281036       5.56426921       0.55692637      -0.76009141      -0.33409288      -0.27376558      -0.12217714      -0.10472431
N        4.41477470       2.21281058       8.15622196       0.23212665      -1.18786851      -0.42946751      -0.27467341      -0.12306673       0.10608801
N        2.44121109       4.41522122       0.99079308       0.62249756       0.56228250       0.10553113       0.27465122       0.12296741      -0.10592964
N        1.00418807       6.60938087       3.20381811       0.60166548      -0.13417880      -0.09889361      -0.07673812       0.96634390      -1.65985524
N        5.85180871       0.01865656       5.94318052      -0.16557925      -0.93039969      -0.43752110       0.07676666      -0.96642078       1.66000948
N        2.42381641       0.01859504       7.77727817       0.20960172       0.55571460      -0.16830358       0.07664085      -0.96307030      -1.65315545
N        4.43220989       6.60940496       1.36974230      -0.05183301       0.33038058      -0.84543545      -0.07668688       0.96316591       1.65321531
N        5.85183345       3.29537075       1.36974155       1.23459653       0.35550624       0.23848868       0.07646972       0.96221499       1.65088117
N        1.00416241       3.33266396       7.77725785      -1.04680934       0.51530200       0.18957006      -0.07645386      -0.96224255      -1.65092129
N        4.43217819       3.33259595       5.94314838      -0.31458994       0.70283065       0.00923711      -0.07690844      -0.96451230       1.65661427
N        2.42384593       3.29539420       3.20386558      -0.13701524      -0.62377675       0.57329931       0.07671515       0.96503084      -1.65726070
C        0.99084076       0.49271138       2.14750428      -0.44859953      -0.93647814      -0.66200388       0.11976510      -0.66143001       1.07708951
C        5.86515902       6.13532592       6.99949613       0.59159819       0.35723849      -0.49031472      -0.11978816       0.66149555      -1.07726223
C        2.43716021       6.13530272       6.72102533      -0.30826187       0.41727853       0.64096576      -0.11960023       0.65828166       1.07036388
C        4.41885426       0.49271529       2.42598724       0.69434908       0.19409096       0.10662538       0.11963228      -0.65835311      -1.07043345
C        5.86515277       3.80670123       2.42594728      -0.49881506       0.36679000      -0.54153929      -0.11930215      -0.65596099      -1.06521304
C        0.99084508       2.82133178       6.72105241      -0.70311464       0.54257435       0.24593447       0.11929954       0.65599100       1.06526863
C        4.41881034       2.82132239       6.99944631       0.34904722       0.25474507       0.36048080       0.11999794       0.65855887      -1.07160166
C        2.43717779       3.80669979       2.14757469      -0.75974653      -0.65244417       1.47208063      -0.11975554      -0.65875153       1.07158699
H        1.44155719       0.67055139       0.17058773       0.18635434       0.18428424      -0.01178129      -0.35128238       0.23205974       0.57690870
H        5.41443985       5.95747474       8.97641252       0.20784242       0.12338805      -0.05359299       0.35129207      -0.23205498      -0.57692637
H        1.98648545       5.95746271       4.74414103       0.08802139       0.30075278       0.19968034       0.35006355      -0.23092573       0.57504915
H        4.86951020       0.67058557       4.40287378       0.15893159       0.34024768      -0.33959345      -0.35005378       0.23091308      -0.57508643
H        5.41447961       3.98459053       4.40291523       0.23190370       0.17424615      -0.14705461       0.35072705       0.23141143      -0.57646160
H        1.44151673       2.64344230       4.74408475       0.21364684      -0.03289534      -0.14909382      -0.35071696      -0.23142763       0.57648011
H        4.86953587       2.64349042       8.97641347      -0.12039467      -0.18505999      -0.00661836      -0.35147621      -0.23221738      -0.57726727
H        1.98645601       3.98454595       0.17058653      -0.07745772      -0.22434866       0.10328259       0.35154566       0.23224469       0.57758876
H        0.31571373       1.87180537       0.86440283      -0.05800270      -0.07765103       0.06951447       0.53530913      -0.54874369       0.06416440
H        6.54028750       4.75622829       8.28259175      -0.17496263      -0.24568803       0.15301547      -0.53531431       0.54874473      -0.06416818
H        3.11223508       4.75627221       5.43788177       0.20299928       0.11742253       0.14932054      -0.53353748       0.54676306       0.06404444
H        3.74375951       1.87175865       3.70910561       0.07241192      -0.18424511       0.13173977       0.53357301      -0.54677886      -0.06403386
H        6.54028342       5.18579686       3.70912097       0.05871721      -0.18422795       0.12265057      -0.53462296      -0.54809018      -0.06452046
H        0.31571250       1.44223840       5.43787943       0.11710223       0.02986283      -0.14788735       0.53461806       0.54808557       0.06451874
H        3.74367631       1.44220161       8.28258266      -0.08661629      -0.18363508       0.16477534       0.53597965       0.54950995      -0.06427523
H        3.11232348       5.18582400       0.86441911       0.04349185      -0.15799799       0.02180820      -0.53612270      -0.54969072       0.06444584
40
Lattice="6.856 0.0 0.0 0.0 6.628 0.0 0.0 0.0 9.147" Properties=species:S:1:pos:R:3:momenta:R:3:forces:R:3 energy=-32419.3743816775 free_energy=-32419.3743816775 stress="0.00024877582922581585 0.0020889832820808253 -0.002160653754508463 0.0020889832820808253 0.0004714004306349424 -0.004344661174655045 -0.002160653754508463 -0.004344661174655045 -0.01456590379895458" pbc="T T T"
N        0.95944170       1.12368595       1.00967603      -0.46044112       0.06327621       0.42392018       0.13697370      -0.23755491      -0.75231787
N        5.86058757       5.61281977       8.17199659      -0.06647986       1.41093326       0.21685656       0.42445509      -0.83228390       0.84158946
N        2.41385955       5.48243290       5.60828219      -0.47062241      -0.13552213       0.94844958       0.09035263       0.58536020      -1.06333331
N        4.36207568       1.07373172       3.58946427      -0.45925176      -0.69586225       0.03761536       0.08893930      -0.32036298      -0.82980012
N        5.89113605       4.40869272       3.51268277       0.31335333       0.53421868       0.30458709       0.35763652       1.32005966       1.78165076
N        1.03552545       2.19897463       5.57483897       0.57047674       0.18054460       0.76271348       0.55112137       1.07027813      -0.39974239
N        4.42567112       2.12639798       8.12426574       0.34049521      -0.95983782      -0.48677551      -0.31331671       0.08136564       0.12061078
N        2.46957366       4.40929564       1.04908412       0.33905022      -0.60488080       1.40208974      -0.79892585      -1.02115876      -0.56924355
N        1.03563370       6.60930554       3.16437954       0.31345736      -0.15945476      -0.27333479      -0.15577191      -0.79375669       0.99531459
N        5.84173175      -0.05643617       5.91019835       0.01362729      -1.04535522      -0.67052944       0.44194600      -0.37985172       1.10874850
N        2.44149287       0.05619469       7.77003153       0.10678969       0.53890078       0.15561656      -0.17390511      -0.63333836      -0.73273298
N        4.43132594       6.66488462       1.36447969      -0.04333189       0.76295122       0.02054276       0.17867392      -0.50137419      -1.16871153
N        5.92976338       3.32525451       1.36122729       0.93876278       0.15834826      -1.09794656      -0.48692772      -0.21527330      -1.14495623
N        0.93142802       3.34761054       7.76614175      -1.03239123       0.16034666      -0.18391797      -0.09786495      -0.13770541      -0.38728942
N        4.41033194       3.34758654       5.97960115      -0.31697134       0.11176510       0.49835489       0.27058158       0.33717880      -0.68173908
N        2.41543482       3.25445176       3.23983000      -0.18521991      -0.46115203       0.52029759      -0.25600521       0.98171179      -1.34430882
C        0.96840160       0.42164302       2.10643490      -0.15333196      -0.41672898      -0.87618807       0.24900723       1.35294240      -0.90215178
C        5.90247868       6.15161592       6.99861392       0.30227984      -0.12027284       0.40153864      -0.43289738       0.35873595      -1.67145860
C        2.41701687       6.14498935       6.74015660      -0.02025566      -0.07481497      -0.19450541       0.42604868       0.39838674       1.01335305
C        4.45892426       0.49451220       2.41408981       0.29502788       0.37898969       0.32097457      -0.67600306       1.24683692       1.65667123
C        5.83837217       3.83716143       2.38602073      -0.09778218       0.31268322      -0.39927216       0.56686809      -0.83773605      -1.04853562
C        0.93797022       2.86260931       6.71281729      -0.49450543       0.13229359      -0.73122917       0.24330600      -0.79360517      -0.37224616
C        4.44023543       2.84277982       7.01184449       0.10761356      -0.21327537       0.51875305      -0.40930080      -1.32983517       1.31941057
C        2.38523773       3.78771471       2.19932184      -0.34505961       0.19837070       0.01628533       0.80513411      -0.44759879       1.02277748
H        1.53217493       0.83782232       0.20840654       0.04180342       0.09668059       0.06578529      -0.45115214      -0.10675550       0.39303465
H        5.56642910       6.18637156       8.95946119       0.14952025       0.20380278      -0.19401531       0.03262038      -0.27479651      -0.10432736
H        2.16025545       6.08418924       4.80461083       0.28455633      -0.12389694      -0.06611344       0.01345338      -0.67496275       0.42193465
H        5.06950482       0.83387887       4.25055735      -0.11885745       0.16974162      -0.35536954       0.19563714      -0.16294065       0.78500665
H        5.45143877       3.96657724       4.29684034      -0.02771094      -0.03509977      -0.32311679      -0.27417273      -0.04648073       0.56760421
H        1.55730646       2.65402089       4.78395214       0.12779496       0.14849375      -0.01708639      -0.80260994      -0.51013852       0.98006000
H        4.80605384       2.55746200       8.96682976      -0.04099864      -0.02598780      -0.13186360      -0.09995121      -0.10429911      -0.22366737
H        2.04973574       3.90261463       0.24819449       0.08944506       0.07275751      -0.06740986       0.29365519       0.72182712       0.44451673
H        0.26005539       1.85227932       0.87493056       0.06751266      -0.11640595       0.02899367       0.18781594      -0.22407216       0.20817716
H        6.26930061       4.67512794       8.33975940      -0.17508606      -0.09524015       0.01586450      -0.24998681       1.08949627      -0.21870423
H        3.24238862       4.90390779       5.42695643      -0.00403231       0.22858311      -0.11979881      -0.50163647       0.18567773       0.30213599
H        3.70226795       1.82693127       3.76799687       0.10584401      -0.22381838      -0.16130684       0.22926463      -0.23672953      -0.31234945
H        6.66254410       5.05694293       3.67714011       0.08119706      -0.09899368      -0.20592297      -0.36752687      -0.04523514       0.04003198
H        0.40247342       1.43738182       5.35635390       0.10215688       0.09444067       0.04610565       0.04403372       0.18411162       0.32573531
H        3.72399342       1.35898977       8.24878370      -0.10857042      -0.11765231      -0.23618325       0.80769602       0.96140410      -0.53033777
H        3.20646434       5.08538679       0.88901987      -0.06986439      -0.23386984       0.08654139      -0.08726574      -0.00752710       0.12958988
40
Lattice="6.856 0.0 0.0 0.0 6.628 0.0 0.0 0.0 9.147" Properties=species:S:1:pos:R:3:momenta:R:3:forces:R:3 energy=-32419.065972929446 free_energy=-32419.065972929446 stress="-0.0034432530555685765 0.004454511676558405 0.002176941890983767 0.004454511676558405 -0.016132177858754423 0.009035528726971442 0.002176941890983767 0.009035528726971442 -0.046480456239222395" pbc="T T T"
N        0.93549896       1.12262478       1.01402303      -0.34121275       0.21851701      -0.52328511       0.26399323      -0.25566200      -1.07072875
N        5.87136377       5.69660931       8.19600734       0.24547157       1.34016641       0.38640896       0.66016067      -1.37478422      -0.14926969
N        2.38584245       5.47287583       5.63162481      -0.14944329      -0.19146482      -0.05488335       0.64863872       0.32130764       0.13421378
N        4.33987460       1.01842060       3.60301813      -0.25412360      -0.39265848       0.90421254      -1.12389801       0.54615759      -0.80774894
N        5.90811192       4.45056595       3.53029004       0.17590693       0.25900606      -0.27331851       0.18364489      -0.52698759      -2.54777666
N        1.07594975       2.21994489       5.60701167       0.43269986      -0.00094267       0.05621986       0.47420794       0.29086770      -1.75051478
N        4.45059514       2.07828638       8.09014597       0.28909825      -0.45978441      -0.25390451      -0.89448658      -1.14759905       0.41774602
N        2.47981408       4.35856873       1.10886854       0.40236524      -0.33473397       0.01373479      -0.39754325       0.20060308      -1.70629606
N        1.04819093       6.57804649       3.13483043       0.09181679      -0.69762822      -0.37480982      -0.09929202      -0.85135872       1.07604690
N        5.85759230      -0.13674692       5.88656565       0.48471928      -0.88845091      -0.79781792       0.27837597       0.81289986      -2.12441955
N        2.45029186       0.07460548       7.76548927       0.04671516       0.31086709       0.23436601      -0.01496043       0.56231408       1.40996157
N        4.43308333       6.71219025       1.35255290       0.18698186       0.59899040      -0.28345594       0.17456832      -0.13686243      -0.57397850
N        5.97043766       3.35320152       1.28424145       0.21833224       0.59187397      -1.00266661      -0.76945941       0.37351810       0.37967513
N        0.85973148       3.35525086       7.73530206      -1.06920937       0.35957705      -0.19670140      -0.22132808       1.24314710       2.32010450
N        4.39575417       3.34601705       6.01707722      -0.13063871      -0.01317258       0.51569294       0.18472508       0.84860170      -1.53900188
N        2.39973817       3.24525043       3.25077511      -0.28284716      -0.39073973       0.84132657      -0.13827220      -1.39943236       3.32908641
C        0.96159866       0.39967504       2.08311206       0.00027421      -0.09655731       0.31033259       0.39103906       0.97931299      -0.23290099
C        5.91088656       6.15104740       6.97230010      -0.09675826      -0.31931274       0.06680984      -0.30613296      -0.85658330       2.26134469
C        2.43585669       6.16880310       6.75709828       0.28312864       0.22421217      -0.06860255      -0.36039178      -0.65813537      -1.58157561
C        4.46431267       0.52880367       2.41438024      -0.03861164       0.10585892      -0.48989022      -0.07299226      -0.30569124       0.05294563
C        5.84834290       3.84020692       2.32906441       0.42407750       0.18306829      -0.41092746       0.94026534       0.73658145       1.83917077
C        0.89965463       2.87837065       6.70466146      -0.34037856       0.20504973       0.18492289       0.51454351      -0.89290243      -1.22716910
C        4.44398166       2.81953665       7.02972662       0.02111084      -0.10051305      -0.19543207       0.11809626      -0.33450824       0.72002983
C        2.38197487       3.76921523       2.25247539       0.21110913      -0.19579698       0.31869247       0.06998679       0.86672333      -3.09143794
H        1.51142447       0.87203770       0.20606203      -0.13110605       0.01501626      -0.03668900      -0.40786975      -0.02800290       0.28722887
H        5.68011092       6.32171686       8.95828388       0.12038088      -0.04532266      -0.01481583      -0.13883797       0.05150523       0.16480755
H        2.16574564       6.02313227       4.79933161      -0.22447114      -0.00509076       0.15038681      -0.12410586      -0.11523589       0.16272123
H        5.03831845       0.92205719       4.27726207      -0.29626600       0.06786150      -0.01806605       1.18773205      -0.46400992       1.27962209
H        5.41470892       4.06023713       4.29577143       0.10708386       0.29428324       0.06307393      -0.50330416      -0.40649528       0.75489992
H        1.53747665       2.70819251       4.79722425      -0.06457631       0.05959501      -0.09510511      -0.67777770      -0.64402421       0.96233367
H        4.74131421       2.46650371       8.98150276      -0.15128360      -0.22741775       0.02705211      -0.07234378      -0.09059394      -0.12331857
H        2.01213432       4.05184323       0.23156171      -0.20726742       0.08902603       0.13935243       0.16688775       0.03504446       1.13112088
H        0.23605535       1.84592125       0.94680996       0.07547349      -0.08406987       0.09707192      -0.02508590       0.17232887      -0.14884160
H        6.18741080       4.71887035       8.37959645       0.04134520       0.10032207       0.10766192      -0.23535948       1.36182347      -0.24886884
H        3.26730389       4.96704542       5.53909507      -0.10328280      -0.11889004       0.25927909      -0.32904410      -0.29771071      -0.29880371
H        3.68877863       1.78015958       3.66917511       0.20673864      -0.20693189      -0.01449983      -0.18596466       0.36369592       0.32458407
H        6.69753126       5.07200081       3.68897967      -0.16626001      -0.01577079       0.13828421      -0.25319623      -0.04452431      -0.08289888
H        0.44833285       1.45521492       5.41867965       0.05508380      -0.03670195       0.02396430      -0.05911362      -0.15533058      -0.10528335
H        3.72752657       1.31154711       8.02904890       0.01064887      -0.13202132       0.02919808       0.93286439       0.73964506       0.59732293
H        3.21988825       5.02992433       1.03368071      -0.08282553      -0.06931829       0.23682703       0.22103025       0.48035707      -0.19413303
40
Lattice="6.856 0.0 0.0 0.0 6.628 0.0 0.0 0.0 9.147" Properties=species:S:1:pos:R:3:momenta:R:3:forces:R:3 energy=-32419.36410723595 free_energy=-32419.36410723595 stress="-0.006889007962042422 0.0032049401737374115 -0.0009922319886721915 0.0032049401737374115 -0.003715217779099561 -0.004717745954473177 -0.0009922319886721915 -0.004717745954473177 0.014009008411827763" pbc="T T T"
N        0.90821198       1.12941267       0.98159231      -0.47160930      -0.04247394      -0.32092140       0.31381390      -0.73416146       0.10210712
N        5.89977881       5.76888483       8.21866845       0.54026932       0.73604675       0.52227486       0.83335943      -1.82292012      -0.66888124
N        2.38593050       5.47393623       5.66031077       0.11140737       0.21872610       0.48985006      -0.12721658       0.37410966      -0.33904586
N        4.31286466       0.98954997       3.63526081      -0.40036146      -0.06946651       0.19230893      -0.52605796      -0.29432473      -2.32729078
N        5.91310986       4.44924604       3.47181000       0.22912994       0.05481009      -0.79380207       0.51500140       0.48869330      -0.26209952
N        1.09985124       2.21095346       5.59883634       0.25999369      -0.04284626      -0.10812660       0.27862581       0.98725680      -0.69508214
N        4.46024578       2.02317742       8.09472057       0.15723591      -0.94286643       0.47640127      -0.72208049      -0.94683207       0.42647394
N        2.51506807       4.34445108       1.09935524       0.59133975      -0.12843849      -0.03993259      -1.53681935      -1.61244441       0.28658545
N        1.04300566       6.52564721       3.12951727      -0.13834768      -0.60737647      -0.29978107      -0.13997801       0.77748687      -1.48435673
N        5.90301368      -0.20200281       5.84404738       0.81133574      -1.03453385       0.05141994       0.06718715       0.04303930      -0.06978123
N        2.44951403       0.08388973       7.78804030      -0.09612204      -0.17925637      -0.03971381      -0.05457880      -0.32521146      -0.42424809
N        4.44476465       6.74476240       1.31392553       0.12719344       0.57703926      -0.43123464       0.13306141       0.85409112       1.88918225
N        5.95673481       3.41032031       1.25631066      -0.54813402       1.11614852       0.30100961      -0.31099805       0.17870166       0.59156235
N        0.77976552       3.40651665       7.74805597      -1.21812422       0.65747942      -0.24288862       0.23534583      -0.50148522      -0.97502588
N        4.39724273       3.36488673       6.01611777       0.16026981       0.11719264       0.10881537       0.29304739      -0.87287507       1.49865756
N        2.38510982       3.22417790       3.31740065      -0.14871257       0.20575718       0.01215514       0.00288788       0.63255587      -0.98286262
C        0.97632657       0.43291222       2.08971531       0.33177994       0.71924434       0.22619529       0.18710355      -0.08224986       0.76601630
C        5.89272096       6.12908110       6.96209014      -0.35356434      -0.03008883      -0.78455353       0.05519937       0.07123210       0.60730980
C        2.44625607       6.19020247       6.75133337       0.02649487       0.34138348       0.28732872      -0.01829549      -0.63476204       0.10636099
C        4.45676723       0.53621336       2.41032639      -0.23123159       0.04888331       0.11848981      -0.33626147      -0.58765001      -0.84245981
C        5.91053030       3.86326736       2.32572691       0.99043730       0.06543750      -0.20440662      -0.03059043      -0.44587307      -0.88462079
C        0.89968612       2.88241223       6.71462632       0.21781438       0.22541400       0.71857799      -0.01304783       0.08591198       0.69827171
C        4.44429389       2.79617653       7.04106103      -0.07293911      -0.22400787      -0.16355758      -0.32330854       0.46151080      -1.51838599
C        2.40035934       3.73964968       2.27401380       0.27756323      -0.82283608       0.87344458       0.39334417       0.51520276      -0.57820581
H        1.36615822       0.81939946       0.11925453      -0.25035839      -0.09926291       0.01873818      -0.10953754      -0.07397184       0.46587801
H        5.67746072       6.38908460       8.96194785      -0.10038251       0.11906403      -0.11636122      -0.31279666       0.54471837       0.28087852
H        1.99376102       5.91439078       4.83238155      -0.03620984      -0.29177098      -0.02347456       0.08463146      -0.04381758       0.11476310
H        4.93275993       0.75965588       4.34756356      -0.18429398      -0.40389438      -0.08605101       1.36098448      -0.79790390       1.46732222
H        5.39927129       4.13244840       4.25282458      -0.17744785      -0.16167455      -0.18351298      -0.68047349      -0.55516733       0.86252858
H        1.43954738       2.75354729       4.75623614      -0.08583239       0.04502494      -0.02247505      -0.46475101      -0.84621351       1.22579131
H        4.71043342       2.40937596       8.99681810       0.10189304       0.07946745      -0.09578746       0.18535398       0.25878925      -0.15873560
H        1.81527324       4.12912414       0.36639564      -0.04619732       0.12001886       0.19221439       0.71542396       0.11371610       0.57869998
H        0.28187168       1.91574133       0.93826871       0.18514121       0.01847560      -0.07591352      -0.20867822       0.27592759       0.03388931
H        6.26800274       4.82375259       8.45563478       0.05515303       0.16751939       0.02169203      -0.44274000       1.10856676      -0.42121783
H        3.03278212       4.70125599       5.50132438      -0.42876260      -0.23182862      -0.16757576      -0.04258510       0.29311273       0.41423274
H        3.73441764       1.78292462       3.74342956       0.17010692      -0.20382959       0.08667521      -0.65693637       0.89721593       0.22506530
H        6.61056239       5.16308739       3.60804813      -0.16925986       0.05694102      -0.29624074       0.12159284       0.32213119       0.14128624
H        0.51646462       1.40558004       5.42125448       0.02424413      -0.11641393      -0.02669134      -0.10412991      -0.01235260       0.08593457
H        3.78391730       1.20452907       8.13439824       0.02926849      -0.11413455       0.05743413       0.89419775       1.31839625      -0.30151145
H        3.13985387       5.10940031       0.97735398      -0.24018045       0.05692674      -0.23202329       0.49169953       0.58784988       0.06501404
40
Lattice="6.856 0.0 0.0 0.0 6.628 0.0 0.0 0.0 9.147" Properties=species:S:1:pos:R:3:momenta:R:3:forces:R:3 energy=-32419.123089156576 free_energy=-32419.123089156576 stress="-0.00294249919720354 0.006174845711100099 -0.0006378335248564061 0.006174845711100099 -0.01057904407442038 -0.007379344783578409 -0.0006378335248564061 -0.007379344783578409 -0.012289139352953515" pbc="T T T"
N        0.88211466       1.11641542       0.97065837      -0.18619855      -0.25600814      -0.11204483       0.41273619      -0.59441832       0.29896396
N        5.93584507       5.82208958       8.21724064       0.52551321       0.68584789      -0.24201295       0.30404293      -0.62644619       0.10427310
N        2.38471900       5.48929701       5.67097772      -0.11392902      -0.01296313      -0.32786950       0.09524993      -0.42810379      -0.70466485
N        4.31145259       0.95655891       3.63468792       0.17311078      -0.68937428      -0.03852420       0.81114169      -1.28093145      -1.36123690
N        5.92624580       4.45443763       3.45283901       0.41780872       0.35592796       0.13846646       0.10107523       0.06385619       0.62985952
N        1.11219787       2.22629545       5.61857173       0.12630418       0.44240934       0.56349117      -0.16682215       0.07084732      -0.90052375
N        4.48113396       1.99299093       8.10325200       0.56317814       0.32696445      -0.34352356      -0.77345095      -0.39268135      -0.75353731
N        2.53729767       4.30238641       1.11821418      -0.11261178      -0.82595970       0.10053253      -0.84177207      -0.50114311      -0.84754088
N        1.03619783       6.50004587       3.08066260      -0.09856544      -0.26793200      -0.66860644       0.19995673       0.38258953       0.13631710
N        5.95722056      -0.25845170       5.81491518       0.66118865      -0.79731867      -0.29028245      -0.47943357      -0.46298401       2.21527791
N        2.43869412       0.06752269       7.79215710      -0.14037899      -0.26868212       0.05485212       0.12222019      -0.33449155      -0.54303565
N        4.46207318       6.80240939       1.32432921       0.33620155       0.67701881      -0.05641328      -0.07825658      -0.39544046      -1.09252901
N        5.91816734       3.46072867       1.23219964      -0.52365598       0.21920137      -0.96173193       0.39700836      -0.08865248       0.63236200
N        0.70544971       3.44884195       7.73383502      -0.83957033       0.43024342      -0.28140500       0.61167885      -0.67976498      -0.76515579
N        4.40726196       3.36297634       6.03638617       0.05792390      -0.05752428       0.07123736      -0.07219100      -0.22432674       0.05478850
N        2.36906396       3.23427087       3.33909078      -0.14504714       0.26824197       0.03055991       0.43382762       1.18099027      -2.55057583
C        1.00004030       0.49650726       2.10698917       0.06906357       0.75470690      -0.20528177      -0.35737680      -0.40994513      -0.13942136
C        5.87532658       6.10784307       6.96329467      -0.07788597      -0.19531537      -0.06747631       0.77549559       0.60239826      -2.97185325
C        2.44696496       6.17746228       6.75016682      -0.23274859      -0.45570506       0.05324890      -0.43633847       0.25278012       1.32667912